     Program BANDS v.7.5 starts on 16Jul2026 at 14: 0: 0

     high-symmetry point:  0.0000 0.0000 0.0000   x coordinate   0.0000
     high-symmetry point:  0.5000 0.0000 0.5000   x coordinate   0.7071
     high-symmetry point:  0.5000 0.2500 0.7500   x coordinate   1.0607
     high-symmetry point:  0.0000 0.0000 0.0000   x coordinate   1.9142

     Plottable bands (eV) written to file bands.dat

     JOB DONE.
