     Program PWSCF v.7.5 starts on 16Jul2026 at 15: 0: 0
     number of atoms/cell      =            1
     number of electrons       =         8.00
     nspin                     =            2

     iteration #  1
     total energy              =     -25.10000000 Ry
     estimated scf accuracy    <       0.05000000 Ry

     iteration #  2
     total energy              =     -25.20000000 Ry
     estimated scf accuracy    <       0.00500000 Ry

     iteration #  3
!    total energy              =     -25.21000000 Ry
     estimated scf accuracy    <       0.00005000 Ry

     the Fermi energy is    8.1200 ev
     total magnetization       =     2.20 Bohr mag/cell
     absolute magnetization    =     2.25 Bohr mag/cell

     JOB DONE.
